2
Lattice="12.0 0.0 0.0 0.0 12.0 0.0 0.0 0.0 13.15034" Properties=species:S:1:pos:R:3:forces:R:3:magmoms:R:1 energy=-14.190959860901234 dipole="-2.2836249679267007e-14 -2.2413533496965265e-14 0.04158562265529039" magmom=0.0 free_energy=-14.190959860901234 pbc="F F F"
O        6.00000000       6.00000000       7.14430859       0.00000000       0.00000000      -0.00816897       0.00000000
C        6.00000000       6.00000000       6.00383400       0.00000000       0.00000000      -0.00278269       0.00000000
