2
Lattice="12.0 0.0 0.0 0.0 12.0 0.0 0.0 0.0 12.0" Properties=species:S:1:pos:R:3:magmoms:R:1 energy=-14.194269345198403 dipole="-2.2345665671620516e-14 -2.2513678017591362e-14 0.035490271473364" magmom=3.842578474119628e-15 free_energy=-14.194269345198403 pbc="F F F"
O        6.00000000       6.00000000       6.57517000       0.00000000
C        6.00000000       6.00000000       5.42483000      -0.00000000
