73
Lattice="8.956369831609006 0.0 0.0 0.0 8.956369831609006 0.0 0.0 0.0 8.956369831609006" Properties=species:S:1:pos:R:3:momenta:R:3:forces:R:3:magmoms:R:1 water=T with=T unit=T cell:=T ABC=T angstrom=T 12.42=T energy=-334.99778342337663 dipole="9.590349514144526 -6.132670170658798 20.807257121873338" magmom=0.0 free_energy=-334.99778342563496 pbc="T T T"
O        2.64335966       5.43752111       5.45710394       0.39048196      -0.56849050      -0.31575715      -0.65702091      -0.89948841      -0.22542931       0.00000000
O        2.49904086       9.91659008       4.25896575       0.56934071       0.42348607      -1.05072819       1.21206580       0.71073417      -0.24510637       0.00000000
O        1.40196371       4.86848840       2.67615623       0.12551249      -0.91397642       0.71856694      -0.20959309      -0.68890316      -1.09180600       0.00000000
O        5.09643290       2.17562212       4.57238850       0.77675013      -0.72364635       1.09141153       0.20680097      -0.27580286       0.36286591       0.00000000
O        7.39840559       1.18561320       2.99843511       0.58755748      -1.17095671      -0.10796588      -0.39399499       0.26116643      -1.14054937       0.00000000
O        5.37723146       4.45796648       5.89864678       0.99042055      -0.58470977      -0.69959132      -0.35381465      -0.13033696      -0.41782504       0.00000000
O        2.60285253       8.05821733       6.18725412      -0.95320834      -0.26318805       0.15486944       0.83341796      -0.64707821      -0.15970350       0.00000000
O        7.07055128       5.41966215       2.05303849       0.34050003      -1.55204327      -0.11138142      -0.57040545      -0.37284112       0.60496028       0.00000000
O        5.83903218       0.06229770      10.22028022      -1.12115464      -0.81784299       1.09340000       0.13866567      -0.30971022      -0.34296086       0.00000000
O        2.71392023       6.52387393       8.75332501      -0.11917147      -0.08796229      -0.75368528       0.01475465      -0.26917752      -0.22883216       0.00000000
O        0.49692568       7.49782685       2.63728649      -0.33097766      -0.94013667       0.76369334       0.05059504       0.36281025       0.32345986       0.00000000
O        1.55801026       2.60733412       7.16020473      -0.55122246       0.66399358      -0.28278845       0.08279053       0.41071473      -1.10712258       0.00000000
O        4.35183022       2.30193751       0.11218735       0.65672290       0.48158725       0.77378349       0.10545805      -1.03289800       0.51762603       0.00000000
O       -0.10628297       4.56891424       6.27325086      -0.23275208       0.93634781      -0.53834902       1.48572519      -0.53438779      -0.50292059       0.00000000
O        1.80566290       2.40844998       0.90232002       0.18683990      -0.24555953      -0.10922033       0.18667263       0.02272646      -0.40264581       0.00000000
O        6.10460428       6.48732646       4.42390494      -0.01180799      -1.57858872      -0.01189469      -0.30412282      -0.92420271       0.94026537       0.00000000
O       -0.57670088      -0.89158026       0.38703859       1.15695607      -1.44933625      -0.44218301       1.03840452       1.12523606      -1.91200257       0.00000000
O        5.18384239       4.92024899       8.64419276       0.94788687      -0.30342012       0.10173035       1.99516587      -0.94508711       1.06606406       0.00000000
O        5.10150478       0.49054188       7.09877496      -0.09313651       0.70500777      -0.62919273       0.17316482      -0.67830683      -1.54533544       0.00000000
O        0.44055287       9.05282706       6.97344736      -0.88828967       0.31439569      -1.42690107       0.26569122       0.14461394       0.48007524       0.00000000
O       -0.75076248       5.52842314      -0.39414250      -0.22450084       0.52542378       0.54918682       0.25750787       0.38882753       0.33305469       0.00000000
O        3.12841906       8.14341514       1.86581133      -0.23719130       0.21129199       0.62588456       0.75233580      -0.80192959      -0.34870298       0.00000000
O        8.11453532       3.76503546       3.80154372      -0.38811577       0.12569279       0.86464971       0.51320294      -1.00786482      -0.08143074       0.00000000
O       -1.66304909       8.55789076       5.63026890      -0.45406486       0.82007751      -0.07113327       1.52355330      -0.91514798      -1.48165360       0.00000000
H        2.37066550       5.12127963       4.54738990      -0.07661603       0.25494559      -0.12416046       0.51073864       0.35743281      -0.59159230       0.00000000
H        1.82512723       5.03627012       5.88710884       0.01612012       0.01130327       0.07950864      -0.13718442       0.37752531       0.63529007       0.00000000
H        2.62982497       9.11802374       4.86803924       0.02217233       0.00843648       0.04428973       0.21125685       0.18309375      -0.04552969       0.00000000
H        3.43332770      10.23948978       3.97445744       0.10398906      -0.05032931       0.06249919      -1.14622370      -0.47215351       0.69490936       0.00000000
H        1.36818367       4.29463835       1.80911095       0.20593697       0.16560041      -0.12267919       0.60046122       0.44396601       1.21599236       0.00000000
H        0.63857367       4.42095250       3.18136805       0.03981273      -0.04443996      -0.02129999      -0.21115390       0.10382894       0.09388011       0.00000000
H        5.27002292       1.54999836       5.33841759       0.30797950      -0.18268382      -0.10417305      -0.55755104       0.10814330       0.56728180       0.00000000
H        5.97119809       2.05727200       4.12990412       0.11000656       0.09975491       0.18236632       0.45764371       0.06738807      -1.06209262       0.00000000
H        6.70547723       0.72826418       2.27878156       0.04707855      -0.01472360       0.02435163       0.74042079       0.25131278       1.26235371       0.00000000
H        7.30826173       0.70879796       3.85196059       0.03515058       0.46408581      -0.00981910       0.00086349      -0.79210329       0.44528888       0.00000000
H        5.46089271       3.65071276       5.26214543       0.02133484       0.16421659      -0.12890076      -0.00029915       0.00975635       0.41027816       0.00000000
H        4.38493661       4.58612437       5.81887367      -0.16804916      -0.00774660       0.14538982      -0.08040736       0.36729761       0.17555207       0.00000000
H        2.47468369       7.11882824       5.85356600      -0.04050814      -0.02585741      -0.20661495       0.24845306      -0.06971701      -0.33418300       0.00000000
H        1.65110352       8.41092468       6.31933610      -0.17420137       0.02689564      -0.10338353      -0.40120481       0.18508026       0.79998257       0.00000000
H        6.41262365       5.79895299       2.75566375      -0.09118308      -0.17150257       0.28731657       0.41513377      -0.50374708      -0.90113823       0.00000000
H        6.63340201       4.83837181       1.34576390      -0.21340224       0.38298275      -0.35353398      -0.39404291       1.10424261       0.62457510       0.00000000
H        6.59443092      -0.35385017       9.67273049      -0.14311836      -0.05514931       0.05916418      -0.44275584       0.02289195       0.35730243       0.00000000
H        5.03026161      -0.56042089      10.25577216       0.10083155       0.24935741       0.06226104       0.50579750       0.65266317       0.09363347       0.00000000
H        2.70069136       7.01125588       7.86040859       0.15680954       0.11678112       0.21109916      -0.31853634      -0.02094633       0.53097671       0.00000000
H        1.82392384       6.10468765       8.90478032      -0.10138160      -0.21677017      -0.01132536       0.04033563       0.27730891      -0.52644297       0.00000000
H        0.87182759       6.58110489       2.65837501       0.00788044       0.04737000      -0.24521429       0.74519014      -0.80375439      -0.12096201       0.00000000
H       -0.40358643       7.29074877       2.95351734       0.14103828       0.15638026      -0.12388981      -0.77613342       0.15183521       0.09316059       0.00000000
H        2.34440078       2.71595598       6.53169723      -0.12991238       0.41444870       0.13016071      -0.76915347      -0.33187386       0.61856166       0.00000000
H        0.87119608       3.31712952       6.81042627      -0.06809145       0.00358017       0.02539116       0.20567531      -0.14759214       0.27770625       0.00000000
H        4.68978018       3.23101714       0.04891099       0.04485313       0.25882988       0.32761531       0.40235629       0.88178913      -0.00630604       0.00000000
H        4.88501433       1.86501900       0.84150761      -0.08833552      -0.02906884       0.08585405       0.06641402      -0.09623209      -0.51863919       0.00000000
H       -0.62054496       4.92520541       7.05295898      -0.13792695       0.12809954       0.12966039      -0.22679947      -0.07797776       0.37935181       0.00000000
H       -0.59186133       4.11000446       5.53373829       0.00988244      -0.07753894       0.28390955      -0.45941478       0.33913035      -0.03974730       0.00000000
H        1.59525850       2.42116555      -0.11959689       0.13906389      -0.16527294      -0.04887936       0.60917463       0.07771053       1.24152410       0.00000000
H        2.83987555       2.31449254       0.91993726      -0.04245868      -0.09048002       0.22331956      -1.18966472       0.26861958      -0.65528761       0.00000000
H        5.83955209       5.69335560       5.11428658       0.21702831      -0.17357099      -0.00547739       0.62276425       0.08876013      -0.71963763       0.00000000
H        5.24896390       6.96160492       4.51215742      -0.20075698      -0.08252786       0.21077674      -0.20905078       0.61036513      -0.28966080       0.00000000
H        0.11884067      -1.18581508       1.08541959       0.13355893      -0.20860298      -0.15875985      -0.71140153       0.37886898      -0.14116199       0.00000000
H       -0.05057580      -0.37047425      -0.41921015      -0.30201169      -0.10122568       0.05537927      -1.00714878      -1.14185923       1.37559939       0.00000000
H        4.25860884       5.13345613       8.63422922      -0.12957596      -0.13151845       0.15870419      -2.13821236       0.87478020      -0.21553017       0.00000000
H        5.41439790       4.55212159       7.76113882      -0.09304505      -0.06594656       0.02114644       0.07031586       0.16005577      -0.76016060       0.00000000
H        4.79016293       1.17142310       7.75994527      -0.01744009       0.14978275       0.29297746      -0.52569883       0.08219119       0.17835250       0.00000000
H        4.33070832       0.01207181       6.62990058       0.14319256      -0.13837581       0.06496040       0.32172605       0.66774769       1.11761284       0.00000000
H       -0.39841410       8.77613273       6.42378497      -0.34702572      -0.24344451       0.10136742       0.15440057       0.65741252      -0.18121489       0.00000000
H        0.76110732      10.02062884       6.86690475       0.04040809       0.04933297       0.38907339      -0.48200296      -0.35996526       0.03405748       0.00000000
H       -0.45463669       5.23039985       0.50736505      -0.29820706      -0.30439987       0.31021764      -0.23644637      -0.00545597      -0.36441863       0.00000000
H       -0.89993280       6.53489260      -0.20374135      -0.02572156       0.07285115      -0.50931736       0.24037058      -0.30627791      -0.04386404       0.00000000
H        2.98176962       7.44821351       1.11163757       0.16611737      -0.07580742      -0.14453634      -0.03152052       0.64361993       0.15909973       0.00000000
H        3.49986190       7.55799708       2.57748399       0.05387335      -0.03606085      -0.22659905      -0.30982508       0.27146945      -0.02029214       0.00000000
H        8.12825977       2.82274670       3.40533279       0.08455565       0.05925279      -0.23984719      -0.56792827       0.63686791       0.31137046       0.00000000
H        7.58433120       4.32514327       3.12926840       0.05693456       0.08465282       0.07166001       0.11134167       0.13633817      -0.18205388       0.00000000
H       -2.28319025       8.98001569       6.24423391       0.21872369       0.16622848      -0.15332149      -1.57464600      -0.03012863       1.04447019       0.00000000
H       -1.90670163       7.57930525       5.37810749       0.23046901       0.07341277       0.07377860      -0.47793630       1.14792571       0.26214611       0.00000000
Na       1.10496873       0.90366735       2.59513752      -1.30602583       0.85347833       0.83053272      -0.22892333      -0.33622316      -0.59828835       0.00000000
