7
Lattice="16.0 0.0 0.0 0.0 16.0 0.0 0.0 0.0 16.0" Properties=species:S:1:pos:R:3:tags:I:1:forces:R:3:magmoms:R:1 energy=-5.873601305877514 dipole="-0.001480209062583774 0.0028385667442471134 0.0011850903513310096" magmom=0.0 free_energy=-5.908262600713246 pbc="F F F"
Na       7.30026288       8.71849172       5.52094979        0      -0.00047611       0.00370973       0.00344932       0.00000000
Na       6.35187383       6.81038342       8.24074547        1       0.00574672      -0.00068863      -0.00069883       0.00000000
Na       9.33110021       6.22268892       6.56216950        2      -0.00252864      -0.00166525      -0.00328324       0.00000000
Na       7.27205394       8.66306522      11.00532405        3      -0.00099871       0.00493402      -0.00094090       0.00000000
Na       9.31064799       6.18945539       9.93876246        4      -0.00109883      -0.00276844       0.00280345       0.00000000
Na       6.05930460      10.26009335       8.27481666        5      -0.00482588      -0.00076456      -0.00182556       0.00000000
Na       9.33995345       9.21835121       8.27875361        6       0.00084141       0.00036761      -0.00032856       0.00000000
