8
Lattice="16.0 0.0 0.0 0.0 16.0 0.0 0.0 0.0 16.0" Properties=species:S:1:pos:R:3:tags:I:1:forces:R:3:magmoms:R:1 energy=-7.936998539389503 dipole="0.0003901901252868925 -0.002674930095755812 0.007145975547794375" magmom=0.0 free_energy=-7.937022710614677 pbc="F F F"
Na       5.60743463       5.48628678       7.32477132        0       0.00015037      -0.00909489      -0.00075744       0.00000000
Na       6.70319608       6.81173264      10.26328616        1      -0.00640734      -0.00345064       0.00894312       0.00000000
Na       5.48435623       8.97978451       7.94329930        2       0.00041460       0.00987203       0.00325548       0.00000000
Na      10.82521860       7.48622490       7.21754817        3       0.01309805       0.00180953      -0.00377061       0.00000000
Na       8.73766587       4.95141640       8.05809592        4      -0.00804852      -0.01502978      -0.00313823       0.00000000
Na       7.85345512       7.62159302       5.92322177        5       0.00185777       0.00058132      -0.01375195       0.00000000
Na       8.58444733       9.43723242       8.85306464        6      -0.00842596       0.01555004       0.00325424       0.00000000
Na       9.92895786       6.85385091      10.61215789        7       0.00748641      -0.00018019       0.00599685       0.00000000
