584
Lattice="8.956369831609006 0.0 0.0 0.0 8.956369831609006 0.0 0.0 0.0 8.956369831609006" Properties=species:S:1:pos:R:3:momenta:R:3:forces:R:3:initial_magmoms:R:1 water=T with=T unit=T cell:=T ABC=T angstrom=T 12.42=T energy=-331.77564825069135 dipole="4.036550979985829 -18.909783387273055 -21.77277488023269" pbc="T T T"
O        2.84549042       5.72290929       3.85237639       0.28339991       0.65433507       0.09140379       0.82995065       0.09274216      -0.26961477       0.00000000
O        3.04151819       9.32917921       3.51522529       0.37173596       0.69943367       0.89854348       2.08676293       0.40679344       1.45086488       0.00000000
O        0.69064951       5.31745845       1.00067872      -1.24687040      -0.33082587      -0.91744246       0.89389580      -0.71321913      -0.70138557       0.00000000
O        4.08978280       2.96897397       3.22590533      -1.88363807       0.56644736      -2.92454820      -1.32771694      -0.15354822      -1.77571665       0.00000000
O        6.76112411       2.49717065       3.26974184       0.24318760      -0.73236903       0.92703916       0.35979485       0.51310866       0.28056767       0.00000000
O        4.46454122       5.51231849       6.02873665      -0.19029705       0.57233021       0.96125469      -0.96902186       0.26330245       1.65290422       0.00000000
O        2.23346573       9.12458158       6.04004811      -0.50414714       0.35911365       0.05241444       1.11093943      -0.61270483      -0.34398794       0.00000000
O        5.71973031       6.25950848       2.27549876      -0.03501326       1.83960515      -0.21949994      -0.57213983       0.49797585       0.53502430       0.00000000
O        6.13512886       0.84034903      10.09764621      -0.45914601       0.17355415      -1.59337636       0.55411980      -0.38752125      -0.34591707       0.00000000
O        2.32555266       6.91621046       7.66099191       0.57287816      -0.39747919      -0.65445161       1.65201998      -0.23096533       0.28297401       0.00000000
O        1.24892717       9.83400004       1.48321685       0.17676265      -0.03804387      -0.65440549       1.10418500       0.11576396      -0.59241613       0.00000000
O        1.22898912       3.41608643       6.53740001       0.61289468       0.48727448      -0.35026065       0.28613842      -0.83325190       0.77370932       0.00000000
O        4.61290955       3.03006498       0.15626731       1.79914683       0.54245174      -0.13631680      -1.56201567       0.32450160       0.66250540       0.00000000
O        0.41917408       5.58098367       5.09266898       0.38466243       0.50555627      -1.27309406       0.13544479       0.58912553       0.89871413       0.00000000
O        2.00267195       3.07950165       0.17895428       0.81196673      -0.68164174       0.30732059      -0.08508245       0.70471721      -0.38026852       0.00000000
O        5.06486986       7.54439692       4.62643338      -0.31574904       1.12973454       0.83269433      -0.23639170       1.31285473      -0.68038749       0.00000000
O       -0.92147472      -0.12969499      -0.58195253      -0.21970875      -0.39415056       0.05936282       1.94343747       0.88364271       0.72300485       0.00000000
O        6.35558378       4.17069310       7.61795553      -0.30850534       0.25080880      -0.87165933      -0.08244078      -0.03433816       0.10065985       0.00000000
O        3.62529278       2.42391891       6.49231293       0.90668969      -0.92439867       0.73688623       0.90686817       1.03020128       1.47666355       0.00000000
O       -0.32467007      10.15620142       6.25970139      -0.15057892      -0.78093353       0.26539732      -0.53698954       0.44508012       0.03186990       0.00000000
O       -1.09579860       6.22941965      -0.86647856       0.28300164       1.12345016      -0.05428252       0.35370488      -0.65088891       0.63834164       0.00000000
O        3.44386273       7.35012624       1.02982162      -1.37539533       0.52131562      -0.13734528      -0.08717142      -0.02672913       0.25842583       0.00000000
O        8.05958593       4.87992502       2.95898063      -0.55144732      -1.50356974      -0.29079650       0.83336992      -1.02317186       0.80192916       0.00000000
O       -2.85317311      10.06871609       5.45422678       0.89578350      -0.72588742       0.21046662       0.11025513       0.37617185       0.13996888       0.00000000
H        2.01563111       5.88962191       4.34317319      -0.11264629      -0.11248469       0.44396109      -1.19482431       0.42138310       0.68634357       0.00000000
H        2.54605497       4.97528027       3.30169529       0.00412144       0.11839330       0.24928620       0.21667618      -0.62447675      -0.45109135       0.00000000
H        3.56966466      10.22255089       3.43949988       0.13735806       0.01897106       0.00444695      -0.56639671      -0.44392301       0.00035727       0.00000000
H        2.28632105       9.45037987       2.92263925       0.02364567       0.12288094      -0.11088081      -1.39633410       0.32985412      -1.11638081       0.00000000
H        1.14028263       4.41481621       0.76148158      -0.32013079       0.10209232       0.00889004      -0.38383491       0.98401953       0.13770451       0.00000000
H        0.14189621       5.06877383       1.79868563      -0.03806793       0.00313421       0.06199563      -0.29325807       0.06983113       0.32573005       0.00000000
H        4.11002247       3.06181616       2.18404109       0.13296334       0.19486775      -0.26431109       0.48128216      -0.05711623       1.91751227       0.00000000
H        5.03758731       3.05484902       3.50678365      -0.06147053      -0.15906545      -0.14477066       0.63103522      -0.01613099      -0.50864231       0.00000000
H        6.65159800       1.95938034       2.42766808      -0.22798367      -0.04368090       0.03275505      -0.26114564      -0.41935841       0.43473795       0.00000000
H        6.58537744       1.88621930       4.06690337      -0.03484052      -0.06073200      -0.05855086       0.07217049      -0.08219927      -0.54070433       0.00000000
H        3.79054719       5.12781773       5.40576313      -0.14330825      -0.13475249       0.37590912      -0.09598831      -0.16608984      -0.58151434       0.00000000
H        3.84292960       5.88430598       6.76966255       0.03562206      -0.04856218      -0.08041362       0.71802082      -0.29995132      -0.85877542       0.00000000
H        2.54611695       9.14019319       5.03718852       0.16242085      -0.00835474       0.39768379      -0.39633697       0.10228399       0.40007437       0.00000000
H        1.32180625       9.49749364       6.03918525      -0.04666480       0.12510424       0.17340872      -0.78169528       0.25563412      -0.21170770       0.00000000
H        5.41044470       6.82601642       3.08737945      -0.36757891      -0.12260585      -0.23373248       0.75384071      -0.67484946      -0.33562622       0.00000000
H        4.83343098       6.19577308       1.80490609      -0.11180758      -0.04379404       0.13708059       0.57159037       0.12174016      -0.22794162       0.00000000
H        7.04420948       0.84332878       9.59593844      -0.00816132       0.00302296       0.41761453      -1.15590410      -0.67405252       0.01055500       0.00000000
H        5.85946780      -0.14118858      10.11262463       0.01050626       0.32194948       0.11720259       0.37941213       1.03821813       0.09133950       0.00000000
H        2.25223181       7.69091622       7.04896300       0.49068388       0.21633846      -0.25423705      -0.25335754       0.78128972      -0.71805478       0.00000000
H        1.53222196       6.38112579       7.61187958       0.17295041       0.11314855      -0.25226663      -1.42911468      -0.64670417      -0.05903263       0.00000000
H        1.63438641      10.69716307       1.08778062       0.10294442       0.05344635       0.38480161      -0.97707885       0.18108811       0.15041184       0.00000000
H        1.97472699       9.29631135       1.05788427       0.24189235      -0.00435152       0.25927548      -0.17114284      -0.88324524       0.17601937       0.00000000
H        2.09017738       3.08975276       6.11318904      -0.10586164       0.16714791      -0.07554306       0.09865354      -0.04633312       0.37851197       0.00000000
H        0.79415949       3.99620764       5.88698964      -0.36460804      -0.05540663       0.11937182      -0.52627897       1.36419807      -0.57595574       0.00000000
H        5.34261037       3.57814101      -0.27049108       0.07126147      -0.19084880       0.31382472       0.97272751       0.55671125      -0.92387376       0.00000000
H        4.99393414       2.16087794       0.39549953      -0.16900995      -0.32634904      -0.26451560       0.70115264      -0.99843105       0.21727726       0.00000000
H        0.01773801       6.29066898       5.70719088       0.24497611       0.18721163       0.28479353      -0.00994570      -1.20376655      -1.01267359       0.00000000
H       -0.18882368       5.31875107       4.30833176      -0.19934669       0.12337608      -0.10368704      -0.41048407       0.68037375       0.18929947       0.00000000
H        1.74046045       3.42054202      -0.75102704      -0.01045030      -0.08250371       0.07085463      -0.12426018      -0.55647840       0.19130165       0.00000000
H        2.98131870       3.31970938       0.26815884      -0.09100406      -0.13080876      -0.05385595       0.01706757      -0.20488162      -0.05779109       0.00000000
H        4.69099317       6.73447989       5.11379302       0.07145358      -0.08327560       0.12419336       0.18037107      -0.00166092       0.25898041       0.00000000
H        4.28070199       7.99030686       4.16949705      -0.22333924      -0.37409188      -0.19791479       0.29444193      -0.24204933       0.24975698       0.00000000
H       -0.07204773      -0.14846579      -0.00794647      -0.12944064      -0.35721819       0.08407288      -1.08097205      -0.05393231      -0.14889659       0.00000000
H       -0.50534430       0.41341178      -1.39438446       0.15132376      -0.08960478       0.25724934      -1.04939347      -0.29166859       0.08517219       0.00000000
H        5.82502308       4.64314719       6.90790061       0.24653916      -0.07066144       0.11310061      -0.08585049      -0.25220246       0.21006806       0.00000000
H        6.90882779       4.94608983       7.99073567      -0.31411518       0.05057747      -0.00473925      -0.01648630       0.12208607      -0.35308091       0.00000000
H        3.68014290       2.65952577       7.52564034       0.42442690      -0.06489014       0.24091456       0.41914179      -0.64242347      -1.93476347       0.00000000
H        3.28781209       1.49041905       6.44632923      -0.15491972      -0.12058289      -0.39855906      -0.67701832      -0.66334903       0.17801952       0.00000000
H       -1.32412409      10.28052848       5.97890239       0.41525784       0.04721068      -0.26250760       0.91291091      -0.35097177       0.26721967       0.00000000
H        0.02643257      11.05696608       6.56762736      -0.18652346       0.08038131       0.12206128       0.01256299      -0.12631300      -0.34072455       0.00000000
H       -0.59755337       5.86085624      -0.03965291       0.05287717       0.19251597       0.23411928       0.23136661       0.36967837      -0.69378275       0.00000000
H       -1.31397162       7.18442993      -0.63340916       0.07616793       0.18920630      -0.28576219       0.23916701       0.01698769      -0.17724263       0.00000000
H        2.98274946       7.09512252       0.16745854      -0.23031188       0.04657639      -0.07512541       0.03465299       0.07764217       0.04670845       0.00000000
H        2.86983191       6.92861776       1.72040523      -0.17820100      -0.12159135      -0.06514544      -0.07166552       0.07306147       0.02406275       0.00000000
H        7.72369596       3.94448261       3.12537612       0.13508066      -0.25212583      -0.47240042      -0.11597276      -0.47605798       0.05351777       0.00000000
H        7.25275949       5.28825175       2.60271373      -0.03836087       0.04191348       0.05620049      -1.59614977       1.24712188      -0.41253041       0.00000000
H       -3.55590239      10.68025798       5.82903452       0.11410515      -0.00713604      -0.24978035      -0.18588182      -0.24242838       0.20891437       0.00000000
H       -3.21703217       9.13073068       5.42453647      -0.04870783      -0.25820335       0.27295601      -0.18953696      -0.22920477      -0.29182403       0.00000000
Na       1.71927207       2.83643530       2.77464530       0.00000000       0.00000000       0.00000000       0.00000000       0.00000000       0.00000000       0.00000000
O        2.84549042       5.72290929      12.80874622       0.28339991       0.65433507       0.09140379       0.82995065       0.09274216      -0.26961477       0.00000000
O        3.04151819       9.32917921      12.47159512       0.37173596       0.69943367       0.89854348       2.08676293       0.40679344       1.45086488       0.00000000
O        0.69064951       5.31745845       9.95704855      -1.24687040      -0.33082587      -0.91744246       0.89389580      -0.71321913      -0.70138557       0.00000000
O        4.08978280       2.96897397      12.18227516      -1.88363807       0.56644736      -2.92454820      -1.32771694      -0.15354822      -1.77571665       0.00000000
O        6.76112411       2.49717065      12.22611167       0.24318760      -0.73236903       0.92703916       0.35979485       0.51310866       0.28056767       0.00000000
O        4.46454122       5.51231849      14.98510648      -0.19029705       0.57233021       0.96125469      -0.96902186       0.26330245       1.65290422       0.00000000
O        2.23346573       9.12458158      14.99641794      -0.50414714       0.35911365       0.05241444       1.11093943      -0.61270483      -0.34398794       0.00000000
O        5.71973031       6.25950848      11.23186859      -0.03501326       1.83960515      -0.21949994      -0.57213983       0.49797585       0.53502430       0.00000000
O        6.13512886       0.84034903      19.05401604      -0.45914601       0.17355415      -1.59337636       0.55411980      -0.38752125      -0.34591707       0.00000000
O        2.32555266       6.91621046      16.61736174       0.57287816      -0.39747919      -0.65445161       1.65201998      -0.23096533       0.28297401       0.00000000
O        1.24892717       9.83400004      10.43958668       0.17676265      -0.03804387      -0.65440549       1.10418500       0.11576396      -0.59241613       0.00000000
O        1.22898912       3.41608643      15.49376984       0.61289468       0.48727448      -0.35026065       0.28613842      -0.83325190       0.77370932       0.00000000
O        4.61290955       3.03006498       9.11263714       1.79914683       0.54245174      -0.13631680      -1.56201567       0.32450160       0.66250540       0.00000000
O        0.41917408       5.58098367      14.04903881       0.38466243       0.50555627      -1.27309406       0.13544479       0.58912553       0.89871413       0.00000000
O        2.00267195       3.07950165       9.13532411       0.81196673      -0.68164174       0.30732059      -0.08508245       0.70471721      -0.38026852       0.00000000
O        5.06486986       7.54439692      13.58280321      -0.31574904       1.12973454       0.83269433      -0.23639170       1.31285473      -0.68038749       0.00000000
O       -0.92147472      -0.12969499       8.37441730      -0.21970875      -0.39415056       0.05936282       1.94343747       0.88364271       0.72300485       0.00000000
O        6.35558378       4.17069310      16.57432536      -0.30850534       0.25080880      -0.87165933      -0.08244078      -0.03433816       0.10065985       0.00000000
O        3.62529278       2.42391891      15.44868276       0.90668969      -0.92439867       0.73688623       0.90686817       1.03020128       1.47666355       0.00000000
O       -0.32467007      10.15620142      15.21607122      -0.15057892      -0.78093353       0.26539732      -0.53698954       0.44508012       0.03186990       0.00000000
O       -1.09579860       6.22941965       8.08989127       0.28300164       1.12345016      -0.05428252       0.35370488      -0.65088891       0.63834164       0.00000000
O        3.44386273       7.35012624       9.98619145      -1.37539533       0.52131562      -0.13734528      -0.08717142      -0.02672913       0.25842583       0.00000000
O        8.05958593       4.87992502      11.91535046      -0.55144732      -1.50356974      -0.29079650       0.83336992      -1.02317186       0.80192916       0.00000000
O       -2.85317311      10.06871609      14.41059661       0.89578350      -0.72588742       0.21046662       0.11025513       0.37617185       0.13996888       0.00000000
H        2.01563111       5.88962191      13.29954302      -0.11264629      -0.11248469       0.44396109      -1.19482431       0.42138310       0.68634357       0.00000000
H        2.54605497       4.97528027      12.25806512       0.00412144       0.11839330       0.24928620       0.21667618      -0.62447675      -0.45109135       0.00000000
H        3.56966466      10.22255089      12.39586971       0.13735806       0.01897106       0.00444695      -0.56639671      -0.44392301       0.00035727       0.00000000
H        2.28632105       9.45037987      11.87900908       0.02364567       0.12288094      -0.11088081      -1.39633410       0.32985412      -1.11638081       0.00000000
H        1.14028263       4.41481621       9.71785141      -0.32013079       0.10209232       0.00889004      -0.38383491       0.98401953       0.13770451       0.00000000
H        0.14189621       5.06877383      10.75505546      -0.03806793       0.00313421       0.06199563      -0.29325807       0.06983113       0.32573005       0.00000000
H        4.11002247       3.06181616      11.14041092       0.13296334       0.19486775      -0.26431109       0.48128216      -0.05711623       1.91751227       0.00000000
H        5.03758731       3.05484902      12.46315348      -0.06147053      -0.15906545      -0.14477066       0.63103522      -0.01613099      -0.50864231       0.00000000
H        6.65159800       1.95938034      11.38403791      -0.22798367      -0.04368090       0.03275505      -0.26114564      -0.41935841       0.43473795       0.00000000
H        6.58537744       1.88621930      13.02327320      -0.03484052      -0.06073200      -0.05855086       0.07217049      -0.08219927      -0.54070433       0.00000000
H        3.79054719       5.12781773      14.36213296      -0.14330825      -0.13475249       0.37590912      -0.09598831      -0.16608984      -0.58151434       0.00000000
H        3.84292960       5.88430598      15.72603238       0.03562206      -0.04856218      -0.08041362       0.71802082      -0.29995132      -0.85877542       0.00000000
H        2.54611695       9.14019319      13.99355835       0.16242085      -0.00835474       0.39768379      -0.39633697       0.10228399       0.40007437       0.00000000
H        1.32180625       9.49749364      14.99555508      -0.04666480       0.12510424       0.17340872      -0.78169528       0.25563412      -0.21170770       0.00000000
H        5.41044470       6.82601642      12.04374928      -0.36757891      -0.12260585      -0.23373248       0.75384071      -0.67484946      -0.33562622       0.00000000
H        4.83343098       6.19577308      10.76127592      -0.11180758      -0.04379404       0.13708059       0.57159037       0.12174016      -0.22794162       0.00000000
H        7.04420948       0.84332878      18.55230827      -0.00816132       0.00302296       0.41761453      -1.15590410      -0.67405252       0.01055500       0.00000000
H        5.85946780      -0.14118858      19.06899446       0.01050626       0.32194948       0.11720259       0.37941213       1.03821813       0.09133950       0.00000000
H        2.25223181       7.69091622      16.00533283       0.49068388       0.21633846      -0.25423705      -0.25335754       0.78128972      -0.71805478       0.00000000
H        1.53222196       6.38112579      16.56824941       0.17295041       0.11314855      -0.25226663      -1.42911468      -0.64670417      -0.05903263       0.00000000
H        1.63438641      10.69716307      10.04415045       0.10294442       0.05344635       0.38480161      -0.97707885       0.18108811       0.15041184       0.00000000
H        1.97472699       9.29631135      10.01425410       0.24189235      -0.00435152       0.25927548      -0.17114284      -0.88324524       0.17601937       0.00000000
H        2.09017738       3.08975276      15.06955887      -0.10586164       0.16714791      -0.07554306       0.09865354      -0.04633312       0.37851197       0.00000000
H        0.79415949       3.99620764      14.84335947      -0.36460804      -0.05540663       0.11937182      -0.52627897       1.36419807      -0.57595574       0.00000000
H        5.34261037       3.57814101       8.68587875       0.07126147      -0.19084880       0.31382472       0.97272751       0.55671125      -0.92387376       0.00000000
H        4.99393414       2.16087794       9.35186936      -0.16900995      -0.32634904      -0.26451560       0.70115264      -0.99843105       0.21727726       0.00000000
H        0.01773801       6.29066898      14.66356071       0.24497611       0.18721163       0.28479353      -0.00994570      -1.20376655      -1.01267359       0.00000000
H       -0.18882368       5.31875107      13.26470159      -0.19934669       0.12337608      -0.10368704      -0.41048407       0.68037375       0.18929947       0.00000000
H        1.74046045       3.42054202       8.20534279      -0.01045030      -0.08250371       0.07085463      -0.12426018      -0.55647840       0.19130165       0.00000000
H        2.98131870       3.31970938       9.22452867      -0.09100406      -0.13080876      -0.05385595       0.01706757      -0.20488162      -0.05779109       0.00000000
H        4.69099317       6.73447989      14.07016285       0.07145358      -0.08327560       0.12419336       0.18037107      -0.00166092       0.25898041       0.00000000
H        4.28070199       7.99030686      13.12586688      -0.22333924      -0.37409188      -0.19791479       0.29444193      -0.24204933       0.24975698       0.00000000
H       -0.07204773      -0.14846579       8.94842336      -0.12944064      -0.35721819       0.08407288      -1.08097205      -0.05393231      -0.14889659       0.00000000
H       -0.50534430       0.41341178       7.56198537       0.15132376      -0.08960478       0.25724934      -1.04939347      -0.29166859       0.08517219       0.00000000
H        5.82502308       4.64314719      15.86427044       0.24653916      -0.07066144       0.11310061      -0.08585049      -0.25220246       0.21006806       0.00000000
H        6.90882779       4.94608983      16.94710550      -0.31411518       0.05057747      -0.00473925      -0.01648630       0.12208607      -0.35308091       0.00000000
H        3.68014290       2.65952577      16.48201017       0.42442690      -0.06489014       0.24091456       0.41914179      -0.64242347      -1.93476347       0.00000000
H        3.28781209       1.49041905      15.40269906      -0.15491972      -0.12058289      -0.39855906      -0.67701832      -0.66334903       0.17801952       0.00000000
H       -1.32412409      10.28052848      14.93527222       0.41525784       0.04721068      -0.26250760       0.91291091      -0.35097177       0.26721967       0.00000000
H        0.02643257      11.05696608      15.52399719      -0.18652346       0.08038131       0.12206128       0.01256299      -0.12631300      -0.34072455       0.00000000
H       -0.59755337       5.86085624       8.91671692       0.05287717       0.19251597       0.23411928       0.23136661       0.36967837      -0.69378275       0.00000000
H       -1.31397162       7.18442993       8.32296067       0.07616793       0.18920630      -0.28576219       0.23916701       0.01698769      -0.17724263       0.00000000
H        2.98274946       7.09512252       9.12382837      -0.23031188       0.04657639      -0.07512541       0.03465299       0.07764217       0.04670845       0.00000000
H        2.86983191       6.92861776      10.67677506      -0.17820100      -0.12159135      -0.06514544      -0.07166552       0.07306147       0.02406275       0.00000000
H        7.72369596       3.94448261      12.08174595       0.13508066      -0.25212583      -0.47240042      -0.11597276      -0.47605798       0.05351777       0.00000000
H        7.25275949       5.28825175      11.55908356      -0.03836087       0.04191348       0.05620049      -1.59614977       1.24712188      -0.41253041       0.00000000
H       -3.55590239      10.68025798      14.78540435       0.11410515      -0.00713604      -0.24978035      -0.18588182      -0.24242838       0.20891437       0.00000000
H       -3.21703217       9.13073068      14.38090630      -0.04870783      -0.25820335       0.27295601      -0.18953696      -0.22920477      -0.29182403       0.00000000
Na       1.71927207       2.83643530      11.73101513       0.00000000       0.00000000       0.00000000       0.00000000       0.00000000       0.00000000       0.00000000
O        2.84549042      14.67927912       3.85237639       0.28339991       0.65433507       0.09140379       0.82995065       0.09274216      -0.26961477       0.00000000
O        3.04151819      18.28554904       3.51522529       0.37173596       0.69943367       0.89854348       2.08676293       0.40679344       1.45086488       0.00000000
O        0.69064951      14.27382828       1.00067872      -1.24687040      -0.33082587      -0.91744246       0.89389580      -0.71321913      -0.70138557       0.00000000
O        4.08978280      11.92534380       3.22590533      -1.88363807       0.56644736      -2.92454820      -1.32771694      -0.15354822      -1.77571665       0.00000000
O        6.76112411      11.45354048       3.26974184       0.24318760      -0.73236903       0.92703916       0.35979485       0.51310866       0.28056767       0.00000000
O        4.46454122      14.46868832       6.02873665      -0.19029705       0.57233021       0.96125469      -0.96902186       0.26330245       1.65290422       0.00000000
O        2.23346573      18.08095141       6.04004811      -0.50414714       0.35911365       0.05241444       1.11093943      -0.61270483      -0.34398794       0.00000000
O        5.71973031      15.21587831       2.27549876      -0.03501326       1.83960515      -0.21949994      -0.57213983       0.49797585       0.53502430       0.00000000
O        6.13512886       9.79671886      10.09764621      -0.45914601       0.17355415      -1.59337636       0.55411980      -0.38752125      -0.34591707       0.00000000
O        2.32555266      15.87258029       7.66099191       0.57287816      -0.39747919      -0.65445161       1.65201998      -0.23096533       0.28297401       0.00000000
O        1.24892717      18.79036987       1.48321685       0.17676265      -0.03804387      -0.65440549       1.10418500       0.11576396      -0.59241613       0.00000000
O        1.22898912      12.37245626       6.53740001       0.61289468       0.48727448      -0.35026065       0.28613842      -0.83325190       0.77370932       0.00000000
O        4.61290955      11.98643481       0.15626731       1.79914683       0.54245174      -0.13631680      -1.56201567       0.32450160       0.66250540       0.00000000
O        0.41917408      14.53735350       5.09266898       0.38466243       0.50555627      -1.27309406       0.13544479       0.58912553       0.89871413       0.00000000
O        2.00267195      12.03587148       0.17895428       0.81196673      -0.68164174       0.30732059      -0.08508245       0.70471721      -0.38026852       0.00000000
O        5.06486986      16.50076675       4.62643338      -0.31574904       1.12973454       0.83269433      -0.23639170       1.31285473      -0.68038749       0.00000000
O       -0.92147472       8.82667484      -0.58195253      -0.21970875      -0.39415056       0.05936282       1.94343747       0.88364271       0.72300485       0.00000000
O        6.35558378      13.12706293       7.61795553      -0.30850534       0.25080880      -0.87165933      -0.08244078      -0.03433816       0.10065985       0.00000000
O        3.62529278      11.38028874       6.49231293       0.90668969      -0.92439867       0.73688623       0.90686817       1.03020128       1.47666355       0.00000000
O       -0.32467007      19.11257125       6.25970139      -0.15057892      -0.78093353       0.26539732      -0.53698954       0.44508012       0.03186990       0.00000000
O       -1.09579860      15.18578948      -0.86647856       0.28300164       1.12345016      -0.05428252       0.35370488      -0.65088891       0.63834164       0.00000000
O        3.44386273      16.30649607       1.02982162      -1.37539533       0.52131562      -0.13734528      -0.08717142      -0.02672913       0.25842583       0.00000000
O        8.05958593      13.83629485       2.95898063      -0.55144732      -1.50356974      -0.29079650       0.83336992      -1.02317186       0.80192916       0.00000000
O       -2.85317311      19.02508592       5.45422678       0.89578350      -0.72588742       0.21046662       0.11025513       0.37617185       0.13996888       0.00000000
H        2.01563111      14.84599174       4.34317319      -0.11264629      -0.11248469       0.44396109      -1.19482431       0.42138310       0.68634357       0.00000000