
  ___ ___ ___ _ _ _  
 |   |   |_  | | | | 
 | | | | | . | | | | 
 |__ |  _|___|_____|  22.8.0
 |___|_|             

User:   maralmq@vera08-1
Date:   Wed Feb 21 13:05:39 2024
Arch:   x86_64
Pid:    1527849
CWD:    /cephyr/users/maralmq/Vera/tif320-computational-materials-and-molecular-physics/A2
Python: 3.10.4
gpaw:   /apps/Arch/software/GPAW/22.8.0-foss-2022a/lib/python3.10/site-packages/gpaw
_gpaw:  /apps/Arch/software/GPAW/22.8.0-foss-2022a/lib/python3.10/site-packages/
        _gpaw.cpython-310-x86_64-linux-gnu.so
ase:    /apps/Arch/software/ASE/3.22.1-foss-2022a/lib/python3.10/site-packages/ase (version 3.22.1)
numpy:  /apps/Arch/software/SciPy-bundle/2022.05-foss-2022a/lib/python3.10/site-packages/numpy (version 1.22.3)
scipy:  /apps/Arch/software/SciPy-bundle/2022.05-foss-2022a/lib/python3.10/site-packages/scipy (version 1.8.1)
libxc:  5.2.3
units:  Angstrom and eV
cores: 1
OpenMP: False
OMP_NUM_THREADS: 1

Input parameters:
  h: 0.25
  mode: {ecut: 500.0,
         name: pw}
  nbands: 5
  occupations: {fixmagmom: False,
                name: fermi-dirac,
                width: 0.05}
  setups: {Na: 1}

System changes: positions, numbers, cell, pbc, initial_charges, initial_magmoms 

Initialize ...

species:
  Na:
    name: Sodium
    id: fa5c50181d04022fed15b2593599c257
    Z: 11.0
    valence: 1
    core: 10
    charge: 0.0
    file: /apps/Common/software/GPAW-setups/0.9.20000/Na.1.LDA.gz
    compensation charges: {type: gauss,
                           rc: 0.43,
                           lmax: 2}
    cutoffs: {filter: 2.36,
              core: 3.60}
    valence states:
      #              energy  rcut
      - 3s(1.00)    -2.819   1.349
      - 3p(0.00)    -0.774   1.349
      -  s          24.392   1.349
  
    # Using partial waves for Na as LCAO basis

Reference energy: -26392.251304  # eV

Spin-paired calculation

Convergence criteria:
 Maximum [total energy] change in last 3 cyles: 0.0005 eV / electron
 Maximum integral of absolute [dens]ity change: 0.0001 electrons / valence electron
 Maximum integral of absolute [eigenst]ate change: 4e-08 eV^2 / valence electron
 Maximum number of scf [iter]ations: 333
 (Square brackets indicate name in SCF output, whereas a 'c' in
 the SCF output indicates the quantity has converged.)

Symmetries present (total): 1

  ( 1  0  0)
  ( 0  1  0)
  ( 0  0  1)

1 k-point (Gamma)
1 k-point in the irreducible part of the Brillouin zone
       k-points in crystal coordinates                weights
   0:     0.00000000    0.00000000    0.00000000          1/1

Wave functions: Plane wave expansion
  Cutoff energy: 500.000 eV
  Number of coefficients: 103959 (reduced to 51980)
  Pulay-stress correction: 0.000000 eV/Ang^3 (de/decut=0.000000)
  Using FFTW library
  ScaLapack parameters: grid=1x1, blocksize=None
  Wavefunction extrapolation:
    Improved wavefunction reuse through dual PAW basis 

Occupation numbers: Fermi-Dirac:
  width: 0.0500  # eV
 

Eigensolver
   Davidson(niter=2) 

Densities:
  Coarse grid: 64*64*64 grid
  Fine grid: 128*128*128 grid
  Total Charge: 0.000000 

Density mixing:
  Method: separate
  Backend: pulay
  Linear mixing parameter: 0.05
  old densities: 5
  Damping of long wavelength oscillations: 50 

Hamiltonian:
  XC and Coulomb potentials evaluated on a 128*128*128 grid
  Using the LDA Exchange-Correlation functional
  External potential:
    NoExternalPotential
 

Memory estimate:
  Process memory now: 328.94 MiB
  Calculator: 178.91 MiB
    Density: 123.30 MiB
      Arrays: 52.00 MiB
      Localized functions: 51.30 MiB
      Mixer: 20.00 MiB
    Hamiltonian: 35.05 MiB
      Arrays: 34.00 MiB
      XC: 0.00 MiB
      Poisson: 0.00 MiB
      vbar: 1.05 MiB
    Wavefunctions: 20.56 MiB
      Arrays psit_nG: 3.97 MiB
      Eigensolver: 7.93 MiB
      Projections: 0.00 MiB
      Projectors: 2.78 MiB
      PW-descriptor: 5.89 MiB

Total number of cores used: 1

Number of atoms: 6
Number of atomic orbitals: 24
Number of bands in calculation: 5
Number of valence electrons: 6
Bands to converge: occupied

... initialized

Initializing position-dependent things.

Density initialized from atomic densities
Creating initial wave functions:
  5 bands from LCAO basis set

           .--------------------------------------.  
          /|                                      |  
         / |                                      |  
        /  |                                      |  
       /   |                                      |  
      /    |                                      |  
     /     |                                      |  
    /      |                                      |  
   /       |                                      |  
  /        |                                      |  
 *         |                                      |  
 |         |                                      |  
 |         |       Na                             |  
 |         |              Na                      |  
 |         |                      Na              |  
 |         |                                      |  
 |         |                                      |  
 |         |        Na                            |  
 |         |               Na                     |  
 |         |                                      |  
 |         .--------------------------------------.  
 |        /          Na                          /   
 |       /                                      /    
 |      /                                      /     
 |     /                                      /      
 |    /                                      /       
 |   /                                      /        
 |  /                                      /         
 | /                                      /          
 |/                                      /           
 *--------------------------------------*            

Positions:
   0 Na     8.513542    7.550432    9.717503    ( 0.0000,  0.0000,  0.0000)
   1 Na    11.659089    6.904295    8.949921    ( 0.0000,  0.0000,  0.0000)
   2 Na     9.407557    5.634213    6.912833    ( 0.0000,  0.0000,  0.0000)
   3 Na     6.970094    4.434884    5.046320    ( 0.0000,  0.0000,  0.0000)
   4 Na     6.000298    6.253485    7.624690    ( 0.0000,  0.0000,  0.0000)
   5 Na     5.301757    8.054384   10.303902    ( 0.0000,  0.0000,  0.0000)

Unit cell:
           periodic     x           y           z      points  spacing
  1. axis:    no    16.000000    0.000000    0.000000    64     0.2500
  2. axis:    no     0.000000   16.000000    0.000000    64     0.2500
  3. axis:    no     0.000000    0.000000   16.000000    64     0.2500

  Lengths:  16.000000  16.000000  16.000000
  Angles:   90.000000  90.000000  90.000000

Effective grid spacing dv^(1/3) = 0.2500

     iter     time        total  log10-change:
                         energy  eigst   dens
iter:   1 13:05:42    -5.387701
iter:   2 13:05:43    -5.396002  -1.03  -0.51
iter:   3 13:05:43    -5.292499  -1.58  -0.52
iter:   4 13:05:44    -5.266896  -1.84  -0.67
iter:   5 13:05:45    -5.281425  -2.29  -0.87
iter:   6 13:05:45    -5.269688  -2.31  -0.99
iter:   7 13:05:46    -5.271443  -2.88  -1.58
iter:   8 13:05:46    -5.267769  -3.20  -1.47
iter:   9 13:05:47    -5.268281  -3.69  -1.96
iter:  10 13:05:48    -5.267901c -3.88  -1.90
iter:  11 13:05:48    -5.267879c -4.42  -2.53
iter:  12 13:05:49    -5.267876c -4.80  -2.71
iter:  13 13:05:49    -5.267878c -5.18  -2.84
iter:  14 13:05:50    -5.267878c -5.53  -2.91
iter:  15 13:05:51    -5.267876c -5.92  -2.96
iter:  16 13:05:51    -5.267876c -6.26  -3.22
iter:  17 13:05:52    -5.267876c -6.63  -3.36
iter:  18 13:05:52    -5.267876c -6.98  -3.47
iter:  19 13:05:53    -5.267876c -7.05  -3.29
iter:  20 13:05:54    -5.267876c -7.58c -3.60
iter:  21 13:05:54    -5.267876c -7.95c -3.77
iter:  22 13:05:55    -5.267876c -8.09c -3.91
iter:  23 13:05:55    -5.267876c -8.60c -4.09c

Converged after 23 iterations.

Dipole moment: (0.023048, -0.015339, -0.006562) |e|*Ang

Energy contributions relative to reference atoms: (reference = -26392.251304)

Kinetic:        +11.842241
Potential:      -10.890124
External:        +0.000000
XC:              -6.219765
Entropy (-ST):   -0.000016
Local:           -0.000220
--------------------------
Free energy:     -5.267884
Extrapolated:    -5.267876

 Band  Eigenvalues  Occupancy
    0     -4.02058    2.00000
    1     -3.01439    1.99999
    2     -3.00819    1.99999
    3     -1.77304    0.00001
    4     -1.63230    0.00000

Fermi level: -2.37624

Gap: 1.235 eV
Transition (v -> c):
  (s=0, k=0, n=2, [0.00, 0.00, 0.00]) -> (s=0, k=0, n=3, [0.00, 0.00, 0.00])

Forces in eV/Ang:
  0 Na   -0.00276   -0.00439   -0.00702
  1 Na   -0.00083    0.00272    0.00346
  2 Na   -0.01345    0.00287    0.00502
  3 Na   -0.00306   -0.00099   -0.00227
  4 Na    0.01618   -0.00064    0.00248
  5 Na    0.00388    0.00050   -0.00172

Timing:                              incl.     excl.
-----------------------------------------------------------
Forces:                              0.589     0.589   3.1% ||
Hamiltonian:                         0.323     0.004   0.0% |
 Atomic:                             0.046     0.001   0.0% |
  XC Correction:                     0.045     0.045   0.2% |
 Calculate atomic Hamiltonians:      0.095     0.095   0.5% |
 Communicate:                        0.000     0.000   0.0% |
 Initialize Hamiltonian:             0.000     0.000   0.0% |
 Poisson:                            0.010     0.010   0.1% |
 XC 3D grid:                         0.168     0.168   0.9% |
LCAO initialization:                 0.040     0.008   0.0% |
 LCAO eigensolver:                   0.009     0.000   0.0% |
  Calculate projections:             0.000     0.000   0.0% |
  DenseAtomicCorrection:             0.000     0.000   0.0% |
  Distribute overlap matrix:         0.000     0.000   0.0% |
  Orbital Layouts:                   0.001     0.001   0.0% |
  Potential matrix:                  0.007     0.007   0.0% |
 LCAO to grid:                       0.013     0.013   0.1% |
 Set positions (LCAO WFS):           0.010     0.002   0.0% |
  Basic WFS set positions:           0.000     0.000   0.0% |
  Basis functions set positions:     0.000     0.000   0.0% |
  P tci:                             0.005     0.005   0.0% |
  ST tci:                            0.001     0.001   0.0% |
  mktci:                             0.002     0.002   0.0% |
PWDescriptor:                        0.458     0.458   2.4% ||
SCF-cycle:                          13.347     0.012   0.1% |
 Davidson:                           2.395     0.808   4.3% |-|
  Apply H:                           0.294     0.278   1.5% ||
   HMM T:                            0.016     0.016   0.1% |
  Subspace diag:                     0.403     0.002   0.0% |
   calc_h_matrix:                    0.352     0.034   0.2% |
    Apply H:                         0.318     0.296   1.6% ||
     HMM T:                          0.021     0.021   0.1% |
   diagonalize:                      0.003     0.003   0.0% |
   rotate_psi:                       0.046     0.046   0.2% |
  calc. matrices:                    0.826     0.217   1.2% |
   Apply H:                          0.609     0.577   3.1% ||
    HMM T:                           0.032     0.032   0.2% |
  diagonalize:                       0.006     0.006   0.0% |
  rotate_psi:                        0.058     0.058   0.3% |
 Density:                            3.523     0.000   0.0% |
  Atomic density matrices:           0.010     0.010   0.1% |
  Mix:                               3.328     3.328  17.7% |------|
  Multipole moments:                 0.003     0.003   0.0% |
  Pseudo density:                    0.182     0.182   1.0% |
   Symmetrize density:               0.000     0.000   0.0% |
 Hamiltonian:                        7.406     0.077   0.4% |
  Atomic:                            0.993     0.013   0.1% |
   XC Correction:                    0.980     0.980   5.2% |-|
  Calculate atomic Hamiltonians:     2.104     2.104  11.2% |---|
  Communicate:                       0.000     0.000   0.0% |
  Poisson:                           0.166     0.166   0.9% |
  XC 3D grid:                        4.066     4.066  21.6% |--------|
 Orthonormalize:                     0.011     0.000   0.0% |
  calc_s_matrix:                     0.001     0.001   0.0% |
  inverse-cholesky:                  0.000     0.000   0.0% |
  projections:                       0.009     0.009   0.0% |
  rotate_psi_s:                      0.001     0.001   0.0% |
Set symmetry:                        0.001     0.001   0.0% |
Other:                               4.068     4.068  21.6% |--------|
-----------------------------------------------------------
Total:                                        18.826 100.0%

Memory usage: 537.43 MiB
Date: Wed Feb 21 13:05:58 2024
